/*--------------------------------*- C++ -*----------------------------------*\
| =========                 |                                                 |
| \\      /  F ield         | OpenFOAM: The Open Source CFD Toolbox           |
|  \\    /   O peration     | Version:  2306                                  |
|   \\  /    A nd           | Website:  www.openfoam.com                      |
|    \\/     M anipulation  |                                                 |
\*---------------------------------------------------------------------------*/
FoamFile
{
    version     2.0;
    format      ascii;
    arch        "LSB;label=32;scalar=64";
    class       featureEdgeMesh;
    location    "constant/triSurface";
    object      SphereSB.eMesh;
}
// * * * * * * * * * * * * * * * * * * * * * * * * * * * * * * * * * * * * * //


// points:

2231
(
(0.0035844832 -0.0046901288 -0.0054821861)
(0.0037793638 -0.0049905847 -0.0053650117)
(0.0036440124 -0.0048787841 -0.0054454585)
(0.0034150556 -0.0044469922 -0.0052175103)
(0.0011663992 -0.0032289445 -0.0044833836)
(0.0010778753 -0.0030515392 -0.0044724541)
(0.0016155003 -0.0035345869 -0.003671906)
(0.0042868294 -0.0024023617 -0.0057281433)
(0.0042841537 -0.0023661272 -0.0053802538)
(0.0047964398 -0.0023008555 -0.0050952975)
(0.0013565787 -0.0028193046 -0.0052914079)
(0.0033139731 -0.00015553502 -0.0051071998)
(0.0010224658 -0.0027376225 -0.0047244765)
(0.00092896802 -0.0020266699 -0.0041184938)
(0.0012479274 -0.0016428203 -0.0034818135)
(0.0051279147 -0.0039147055 0.00019394599)
(0.0046972386 -0.003469784 -0.00082902121)
(0.0041047493 -0.0028493379 -0.0010414685)
(0.0031157765 -0.0030804791 0.00014580268)
(0.0017696762 -0.0053014136 -0.0033792302)
(0.0019098348 -0.0052481517 -0.0033507138)
(0.0020618527 -0.0050625461 -0.0033587071)
(0.0019649907 -0.0032887014 -0.0031365631)
(0.001754732 -0.0030978613 -0.0030970175)
(0.0017120797 -0.0030963842 -0.0030435065)
(0.001426295 -0.003073748 -0.0032638598)
(0.0047871885 -0.0022801415 -0.0027518747)
(0.0046564438 -0.0022889657 -0.002918602)
(0.0048157233 -0.0022549636 -0.0025189517)
(0.0043526171 -0.0021759842 -0.0021553917)
(0.0036032125 -0.002706026 -0.0032847151)
(0.0040239939 -0.0021910907 -0.0023557129)
(0.0039141648 -0.0022421458 -0.0025403393)
(0.0041128299 -0.002179736 -0.0022526148)
(0.0045357263 -0.0027020334 -0.0011558926)
(0.0043365974 -0.0026969335 -0.0011100407)
(0.0010594166 -0.001418935 -0.0023826675)
(0.0017935202 -0.00064987544 -0.0023578599)
(0.00070205692 -0.0018376264 -0.0019529087)
(0.00096953352 -0.0024778068 -0.00050577131)
(0.00098598714 -0.0021833654 -0.00031643454)
(0.001933815 -0.00064500229 -0.0023209641)
(0.0014965988 -0.00037111802 -0.0015116538)
(-0.0021482655 -0.0043848581 -0.0048801191)
(-0.0024034097 -0.0045057409 -0.0048156125)
(-0.0036690764 -0.0019555313 -0.0051792776)
(-0.0025430224 -0.0010991766 -0.005069681)
(-0.0032377671 -0.0021946828 -0.0045207515)
(-0.0029513228 -0.0019415793 -0.0047312747)
(-0.0023701265 -0.0004034391 -0.0046332316)
(-0.0016260718 -0.002338866 -0.002805826)
(-0.0016665547 -0.002187446 -0.0028333)
(-0.001411924 -0.0020917014 -0.0021830704)
(-0.00096921058 -0.00030829612 -0.0027903621)
(-0.0013585008 -0.00089882402 -0.0023012324)
(-0.0011824314 -0.00081544643 -0.0021701241)
(-0.0019172692 -0.0050731399 -0.00016375912)
(-0.0027236736 -0.0005333437 -0.0030244561)
(-0.0032882732 -1.2227303e-05 -0.0028702705)
(0.0034425517 0.00020995877 -0.0056712446)
(0.0033260451 0.0030228274 -0.0040704776)
(0.00051691511 0.0028073073 -0.0045053503)
(0.0029398773 0.0023946739 -0.0041479268)
(0.00066430186 0.0023517567 -0.0041615479)
(0.0032432477 0.0019729654 -0.00052245043)
(0.0033303713 0.0021880674 -0.00046750906)
(0.0032687993 0.0021706386 -0.00044968579)
(0.0032598567 0.0023072842 -0.00042263939)
(0.0029953222 0.0025697502 -0.0006489316)
(0.0029637006 0.002576425 -0.00061734265)
(0.0033041856 0.0031549989 -0.0042354418)
(0.0031571353 0.0040409048 -0.0039731911)
(0.0031997932 0.0040258109 -0.0040923255)
(0.00061934732 0.0036916987 -0.0048782812)
(0.00062497094 0.004088216 -0.0046346695)
(0.0039948365 0.0039619389 -0.0020637389)
(0.0040423465 0.0038112227 -0.001930233)
(0.0039857309 0.0038594475 -0.0019374306)
(0.0035718132 0.0037770935 -0.0024122207)
(0.0034353354 0.0036965378 -0.0024126749)
(0.0033040862 0.0037014543 -0.0023486747)
(0.003288154 0.0037334787 -0.0015537015)
(0.00046049393 0.0027397557 -0.0044860905)
(-0.0028125034 0.00012680472 -0.0033478525)
(-0.0027530617 0.00018193714 -0.0033137817)
(-0.0036916414 0.00075168675 -0.0043282709)
(-0.0031993915 0.00019465435 -0.0031212994)
(-0.0043159365 0.00060765026 -0.0037348638)
(-0.0039373655 0.00063819485 -0.0034557681)
(-0.0023679771 0.0013317117 -0.0007157104)
(-0.0021110526 0.0019044433 -0.0012479583)
(-0.0024247027 0.0018738232 -0.0014167414)
(-0.00067281508 0.0049227243 -0.0036074701)
(-0.0008761246 0.0054759281 -0.003796824)
(-0.0011805447 0.0056232447 -0.0032367648)
(-0.0011987499 0.0054557621 -0.0030556582)
(-0.00355935 0.0045600459 -0.0031470072)
(-0.0036030903 0.0048048776 -0.0031462638)
(0.00054142444 0.0044481363 -0.0020430507)
(0.00049794069 0.0045896014 -0.0018531105)
(-0.00016410348 0.0046688532 -0.0018878604)
(-0.00054525019 0.0045736423 -0.00074214692)
(-0.00062982191 0.0044293115 -0.00051325141)
(-0.0011095917 0.0041568787 -0.00072116381)
(-0.0034128553 0.0035452519 -0.0013065507)
(-0.0035839311 0.003449145 -0.0012169732)
(-0.0036428303 0.0034539208 -0.001199238)
(-0.0031070877 0.0039444617 -0.0011000356)
(-0.0038784635 0.0036255775 -0.00075974979)
(0.0053009195 -0.0047082766 0.0016807114)
(0.0049426132 -0.0051887976 0.0019329791)
(0.0049807495 -0.0039536976 2.4008614e-05)
(0.0046282476 -0.0044072364 0.0015455766)
(0.0035464147 -0.0036248812 0.00069315603)
(0.0031762144 -0.0029874651 0.00022165319)
(0.003525669 -0.00049822725 0.0023164717)
(0.0031242513 -0.0029596479 0.00028393956)
(0.0031826862 -0.0029489894 0.00086274737)
(0.0026139731 -0.001190863 6.6163462e-05)
(0.0023464179 -0.0016506597 0.00027005677)
(0.0024894448 -0.0018225618 0.0025481477)
(0.0025016314 -0.0018637389 0.0025789666)
(0.0033785601 -0.0013415887 0.0023602615)
(0.0019794106 -0.0013941628 0.0028671119)
(0.0018708337 -0.0015090959 0.002827917)
(0.0051587312 -0.0048481654 0.0044318396)
(0.005309456 -0.0034628925 0.0044137686)
(0.0052994802 -0.0032930255 0.0043640072)
(0.0045874426 -0.0036692163 0.0045200209)
(0.0047501773 -0.0037512553 0.0045757452)
(0.0046283468 -0.0030529869 0.0042023151)
(0.0045935418 -0.001059574 0.0051491945)
(0.0047367327 -0.0011302097 0.0051726326)
(0.0042903558 -0.0011439085 0.0055994857)
(0.005030972 -0.0010597383 0.0060984367)
(0.0011908027 -0.00047278119 0.0035128775)
(0.00096562569 -0.0050770226 0.0024337468)
(-0.0018870585 -0.0053066383 0.00037137017)
(-0.0018084932 -0.0052390508 0.00054974598)
(-0.0014482952 -0.0045879059 0.00031662759)
(-0.0016752532 -0.0046956656 0.0015250569)
(-0.0014560967 -0.004057365 0.0012647661)
(-0.0016199105 -0.0038572021 0.0015642341)
(-0.0029940272 -0.0037886864 0.0022349225)
(-0.0027292098 -0.0038013021 0.0022607488)
(-0.0031834024 -0.0036375329 0.0021632207)
(0.00080202438 -0.0047694622 0.0032914339)
(-0.00026341423 -0.0034719743 0.0036811116)
(-0.00065942697 -0.0042376053 0.0039747786)
(-0.00080837705 -0.0041194363 0.0039215577)
(-0.0032524136 -0.0040746219 0.0037263869)
(-0.0031635517 -0.0041005947 0.0038189061)
(-0.0035460948 -0.0039851684 0.0036517954)
(-0.0030471601 -0.0038369626 0.0043165819)
(0.00092047569 -0.0011903051 0.0021923834)
(0.00083646219 -0.00060570095 0.0021701262)
(0.00068470248 -1.7541162e-06 0.0039827079)
(-0.0029048629 -0.0022383255 0.0018519603)
(-0.0026273518 -0.0018162451 0.0020506151)
(-0.0027936695 -0.0017052841 0.0021216371)
(-0.0029881825 -0.00025858259 0.0019755666)
(-0.003168137 -7.1600043e-05 0.0018190414)
(0.0042147283 0.0013920688 0.0016075058)
(0.003392427 0.00283187 0.001017176)
(0.004669968 0.00075805699 0.0018819157)
(0.0045234733 0.00079381047 0.0019063284)
(0.0029636391 0.0033662703 0.00084366649)
(0.0030233851 0.0046388311 0.00035867799)
(0.0031003261 0.0042823707 0.0019854202)
(0.001067164 0.0035071142 0.0020265381)
(0.00095855258 0.0029848947 0.0024252324)
(0.0008795929 0.0038468505 0.0022523077)
(0.00074775197 0.0031682078 0.0027376036)
(0.0034775152 0.00090392726 0.0035701892)
(0.003885689 0.0032097998 0.0052851997)
(0.0031734726 0.0015996866 0.0036185882)
(0.00063603109 0.00011606237 0.0038345992)
(0.0023828661 0.0020297379 0.0046602488)
(0.0024263933 0.0028122796 0.0044876528)
(0.0025107164 0.0015421448 0.0053902809)
(0.0018982525 0.0017579062 0.0052233129)
(0.0039923298 0.0032488585 0.0054041585)
(0.0037394725 0.0039250623 0.0057079992)
(0.0036095493 0.0039787977 0.0055426029)
(0.0019703105 0.0030828037 0.0045459797)
(0.0018965203 0.0034199248 0.004614884)
(0.0019064535 0.0035237486 0.0046011261)
(0.0013359308 0.0040536509 0.0043633189)
(0.00087351794 0.0043964344 0.0036668074)
(0.0014409 0.0042452016 0.0043708943)
(-0.00022764882 0.0016852537 0.0014123282)
(-0.00024260161 0.0016783945 0.0013551195)
(-0.00044041587 0.0016554644 0.0013900079)
(-0.00075559155 0.0018274508 0.0010556502)
(-0.0023903192 5.3963649e-05 0.0014221849)
(-0.00011958477 0.0018611023 0.00093438884)
(-0.00066201756 0.0018777236 0.00088296522)
(-0.001186075 0.0014550933 0.0034421666)
(-0.0013310098 0.0018655363 0.0034608939)
(-0.0013682523 0.001819352 0.003445134)
(-0.0015920441 0.0018848492 0.0036625138)
(-0.0015970244 0.0018590664 0.0036182937)
(-0.0017285066 0.0017053786 0.0038265237)
(-0.0019497294 0.0054260986 0.0012349004)
(-0.0020502792 0.0055290302 0.0011746798)
(-0.00019348026 0.0034567474 0.0044430397)
(-0.0012813676 0.003318351 0.004987102)
(1.1930661e-06 0.0033670629 0.0052166055)
(-0.001303335 0.0033530586 0.0050729862)
(-0.0025092622 0.00011703234 0.0013395724)
(-0.002908709 0.00023049024 0.0013461268)
(-0.0035001468 0.00083787134 0.0014754508)
(-0.0038603602 0.0014676745 0.0020400754)
(-0.0038807802 0.001189779 0.0022680536)
(-0.0031704581 0.00014897298 0.0035953165)
(-0.0026757969 0.00062610162 0.0040555359)
(-0.0028215083 0.00070678303 0.0040753754)
(-0.0028933717 0.00072373403 0.0040099826)
(-0.0032353224 0.0002407455 0.003601826)
(-0.0032738547 0.001857282 0.0036268258)
(-0.0035238531 0.0020050607 0.0031256157)
(-0.0037935623 0.0012759683 0.0032136275)
(0.0034693573 -0.0045415079 -0.0053717196)
(0.0036048945 -0.0047627566 -0.0054550916)
(0.0034023286 -0.0045499005 -0.0053362078)
(0.0038094542 -0.0047487393 -0.0045991782)
(0.0037749161 -0.0048234179 -0.0045549488)
(0.0037425573 -0.0047152643 -0.0045946995)
(0.0036550204 -0.0045704148 -0.0046123457)
(0.0035753322 -0.0044763656 -0.0046713618)
(0.0035999734 -0.0045654499 -0.004606728)
(0.0034509432 -0.0044370382 -0.0047740364)
(0.003418918 -0.004366077 -0.0050069713)
(0.0034156074 -0.0044124634 -0.004913141)
(0.003598907 -0.0031526235 -0.0035732801)
(0.0035075427 -0.0032891517 -0.0035652635)
(0.0035830471 -0.003126276 -0.0036328307)
(0.003495957 -0.0032236322 -0.0035957785)
(0.0014177638 -0.0052899872 -0.0036051683)
(0.0014411693 -0.0052906969 -0.0036824024)
(0.0013706837 -0.005009023 -0.0038556661)
(0.0015582194 -0.0033341425 -0.0051537664)
(0.0017933913 -0.0046004425 -0.00378108)
(0.0012656676 -0.003367048 -0.0045562568)
(0.0014393962 -0.0033505273 -0.0036647113)
(0.001442256 -0.0033841927 -0.003626633)
(0.00139838 -0.003250377 -0.0035588366)
(0.0013389937 -0.0032071311 -0.0034857271)
(0.0051888535 -0.0022290333 -0.0058033611)
(0.0050579291 -0.0024101052 -0.0058890623)
(0.0048515089 -0.002424652 -0.0060030902)
(0.0050498289 -0.0023366178 -0.0058937143)
(0.0048810109 -0.0023514468 -0.0060118507)
(0.005148639 -0.002320403 -0.0056862119)
(0.0051463428 -0.0022747207 -0.0054708864)
(0.0052050739 -0.0023744118 -0.0055783545)
(0.0044119372 -0.002476875 -0.0059296442)
(0.0043886472 -0.0023962271 -0.0059130392)
(0.0043934593 -0.0023622417 -0.005176235)
(0.0044380007 -0.0022744148 -0.0051502353)
(0.0046653845 -0.0022718648 -0.0050872015)
(0.0036506604 -0.0029251373 -0.003528889)
(0.0033199401 -7.4603093e-05 -0.0060605607)
(0.003059824 -0.00070343161 -0.0057152766)
(0.0029172122 -0.00062191993 -0.0057306699)
(0.0029937006 -0.00060890516 -0.0057751536)
(0.0031039543 -0.00048345554 -0.0051842425)
(0.0032420245 -0.00039469352 -0.005121144)
(0.0014560899 -0.0029031436 -0.0053117764)
(0.001431659 -0.0029741137 -0.0053345803)
(0.0013698849 -0.0026507124 -0.0052502127)
(0.0012800022 -0.0027770929 -0.0052752797)
(0.0011479077 -0.0026789221 -0.0051668752)
(0.0009765107 -0.0026675111 -0.0048988685)
(0.0010626683 -0.0026551818 -0.0048470572)
(0.00098553125 -0.0028449714 -0.0046154396)
(0.0010293077 -0.002833836 -0.0045710583)
(0.0010299091 -0.0024993096 -0.0036790057)
(0.00094753335 -0.0024361077 -0.0037226046)
(0.0009866124 -0.0016880076 -0.0040246001)
(0.0010775035 -0.0015965736 -0.003904236)
(0.0032617212 -0.0033962575 -0.0034091608)
(0.003179898 -0.0033437039 -0.0033612696)
(0.0030593791 -0.0032226692 -0.003071184)
(0.0031010096 -0.0032654104 -0.0032287154)
(0.0031108761 -0.0029132806 -0.002963678)
(0.0031256622 -0.0027889048 -0.0029415125)
(0.0045145531 -0.004020276 3.3751832e-05)
(0.0047517782 -0.0039387546 -5.2656185e-05)
(0.0045477706 -0.0039612516 6.4929986e-06)
(0.0048250849 -0.0033542558 -0.00090646342)
(0.0044888174 -0.0035518948 -0.0007999448)
(0.0043378486 -0.003520618 -0.00075216597)
(0.0043647629 -0.0040419251 0.00014478982)
(0.0039729546 -0.0031472191 -0.00094680523)
(0.0039993315 -0.0029644796 -0.00093066529)
(0.0017517168 -0.0053726174 -0.003433144)
(0.0016943375 -0.0053341659 -0.0034015279)
(0.0020457753 -0.003535151 -0.0033747542)
(0.0021025266 -0.0034270936 -0.0032273652)
(0.0020152368 -0.0035606434 -0.003334533)
(0.0020245907 -0.0034315123 -0.0032033725)
(0.0018401716 -0.0031358756 -0.0030886803)
(0.0018364689 -0.0031865018 -0.0030680187)
(0.0016268289 -0.0030312336 -0.0031488233)
(0.0015672295 -0.0030506609 -0.0031230478)
(0.0046528154 -0.0022308517 -0.0021542052)
(0.004678024 -0.0021845081 -0.0022270789)
(0.0041889539 -0.0021885459 -0.0021624318)
(0.0042137671 -0.0021367397 -0.0021960598)
(0.0033899494 -0.0027040916 -0.003054854)
(0.0040617068 -0.0022688203 -0.002857866)
(0.0033194029 -0.0027081843 -0.0029660654)
(0.0032492592 -0.0026721552 -0.0029817673)
(0.0031974209 -0.0027827437 -0.0029354419)
(0.0046472992 -0.0027237625 -0.0012046188)
(0.0046248655 -0.0027019714 -0.0011460475)
(0.0043383366 -0.0026981833 -0.0011818616)
(0.0044854097 -0.0026701225 -0.001130225)
(0.0042350884 -0.0027502992 -0.0011119201)
(0.0012769809 -0.0018213493 -0.0033394981)
(0.0012309568 -0.0018558725 -0.0032367064)
(0.0011082097 -0.0019049918 -0.0025246427)
(0.0011327673 -0.0017203683 -0.0025045068)
(0.0010853444 -0.0019990059 -0.0024150989)
(0.0011454768 -0.0018489672 -0.0024866839)
(0.00099361746 -0.0020708495 -0.0023738402)
(0.0011488006 -0.0016083441 -0.0024721764)
(0.0011238348 -0.0015709515 -0.0024787502)
(0.00094963692 -0.0013514058 -0.0022583869)
(0.0015335159 -0.00068287639 -0.0023363505)
(0.0009462437 -0.0025218392 -0.00062384002)
(0.0010342764 -0.0024628134 -0.00044376412)
(0.00091245415 -0.0013620936 -0.0021187728)
(0.0025717258 -0.0010809529 -3.5519435e-05)
(0.00091618241 -0.0021035916 -0.0022023073)
(0.00074438471 -0.0020484219 -0.0020513646)
(0.00086535979 -0.0021048326 -0.0022060308)
(0.00077086739 -0.0019924117 -0.0020164615)
(0.00067742099 -0.0022131836 -0.0010111531)
(0.00084168033 -0.0025186834 -0.00086674461)
(0.00076252752 -0.0024017983 -0.00092593377)
(0.00082993798 -0.0013928943 -0.0020976106)
(0.0006890028 -0.0015579605 -0.0019415037)
(0.00075788924 -0.0015470799 -0.0019582994)
(0.00080959703 -0.0025033879 -0.00081788696)
(0.00092625082 -0.0025383655 -0.00058153842)
(0.00071876129 -0.0024710132 -0.00091965811)
(0.00099282165 -0.0024817798 -0.00037503248)
(0.00099519128 -0.0023770214 -0.00037396321)
(0.00090451539 -0.0019953994 -0.0003394107)
(0.00072797068 -0.0018332958 -0.00067417679)
(0.00072075496 -0.0018250135 -0.00058833801)
(0.00077675784 -0.0018393135 -0.00049848581)
(0.00086976436 -0.0018884497 -0.00041708857)
(0.00080218044 -0.0017729265 -0.00054446666)
(0.00083006424 -0.0018691312 -0.00036832184)
(0.0018804712 -0.00025635207 -0.0015531972)
(0.0017975591 -0.00032497843 -0.001459214)
(0.0015224954 -0.00077807292 -0.0022779515)
(0.001401176 -0.00069602387 -0.002241581)
(0.001350803 -0.0007821917 -0.0021429805)
(0.0012516867 -0.00067102484 -0.0019607681)
(0.0012495623 -0.00042231608 -0.0015984405)
(0.0013377666 -0.00051020127 -0.0016028088)
(0.0017309906 -0.00031230081 -0.0014937215)
(0.0016215261 -0.00036875991 -0.0014685218)
(0.0016474409 -0.00027383532 -0.0014636646)
(-0.0018980921 -0.0040532127 -0.0047128717)
(-0.0019164383 -0.0040330011 -0.0048011704)
(-0.0019282136 -0.0039302381 -0.0046720845)
(-0.0020436924 -0.0037744925 -0.0044731512)
(-0.002278951 -0.00055040553 -0.0045581385)
(-0.002633929 -0.0045224298 -0.0046507698)
(-0.0027080846 -0.0044099526 -0.0046455464)
(-0.0033662252 -0.0051086219 -0.0035730682)
(-0.0025178327 -0.0038340276 -0.0042284476)
(-0.0023891195 -0.0037661511 -0.0042156009)
(-0.0023516084 -0.0036950205 -0.0042817979)
(-0.0029371483 -0.0018287002 -0.0049961749)
(-0.0029739928 -0.0018003889 -0.0049249493)
(-0.003762203 -0.002106006 -0.0050115073)
(-0.0035373378 -0.0018525579 -0.0052318429)
(-0.0037462115 -0.002007643 -0.0050733588)
(-0.0038005791 -0.0021084493 -0.0048939693)
(-0.0025838197 -0.0010803364 -0.0051622801)
(-0.0024601868 -0.0011528985 -0.0049867635)
(-0.0026047842 -0.0011072232 -0.0050302004)
(-0.0025343522 -0.0011159488 -0.0049451697)
(-0.0034078821 -0.0022310594 -0.0045119235)
(-0.0030421182 -0.002045077 -0.0045864885)
(-0.0024077059 -0.0010637365 -0.0046607954)
(-0.0024051308 -0.0010648094 -0.0047836369)
(-0.0023297153 -0.00072788954 -0.0045657558)
(-0.0024714838 -0.00024812337 -0.004784008)
(-0.0025135502 -0.0002223155 -0.0047106417)
(-0.0026635032 -6.7623761e-05 -0.0034287614)
(-0.0026030059 -0.0002709268 -0.0032622127)
(-0.0036748284 -0.0022532747 -0.0047156182)
(-0.003549942 -0.0022641553 -0.0046016485)
(-0.0037564246 -0.0021802711 -0.0047431579)
(-0.0015782967 -0.0046191635 -7.8369434e-05)
(-0.0016120144 -0.004571639 -2.795914e-05)
(0.00070201111 -0.0017252116 -0.001866704)
(0.00067118707 -0.0017290948 -0.001920174)
(-0.0013497589 -0.0024710849 -0.0024224452)
(-0.0015720087 -0.0023909642 -0.0028652875)
(-0.0015408654 -0.0024637568 -0.0027348318)
(-0.0014057267 -0.0025553217 -0.0024808168)
(-0.0017220576 -0.0020792086 -0.0028136356)
(-0.0017154193 -0.0020282536 -0.0028436685)
(-0.0012788115 -0.0023681831 -0.0022390871)
(-0.0013476674 -0.0023791806 -0.002252291)
(-0.0013439941 -0.0021975588 -0.0021876274)
(-0.0013691348 -0.0022273406 -0.0021494082)
(-0.0014538527 -0.0019347811 -0.0022166672)
(-0.0015452725 -0.0018097212 -0.0023266375)
(-0.0015129045 -0.001925758 -0.0021964272)
(-0.0015870407 -0.0018478337 -0.0023329058)
(-0.00081850786 -0.00037750317 -0.0023611682)
(-0.00086721772 -0.00050957355 -0.0022245159)
(-0.0009082692 -0.00053706899 -0.0021782827)
(-0.00087668671 -0.00030123995 -0.0027015733)
(-0.0014840084 -0.00092395995 -0.0025484501)
(-0.0015441757 -0.00086832786 -0.002535711)
(-0.0010978689 -0.00036488048 -0.0029326996)
(-0.0013078911 -0.00052922632 -0.0029876791)
(0.00065443653 -0.0020995096 -0.00096153823)
(0.00067590846 -0.0022682708 -0.00094864127)
(0.00059674465 -0.0021229645 -0.00096995028)
(0.00066225539 -0.0018535362 -0.00085624278)
(0.00064965128 -0.0018824915 -0.00078564603)
(-0.0032599811 -0.0048945872 -0.0030587506)
(-0.0032388035 -0.0046764114 -0.0030048708)
(-0.0031218857 -0.004475493 -0.0030113107)
(-0.0032050323 -0.0044735903 -0.0030699142)
(-0.0019439752 -0.0052175298 -0.00011659554)
(-0.0019781664 -0.005157324 -8.5941698e-05)
(-0.0019060591 -0.0049703093 -0.00019103588)
(-0.0028366009 -0.00056999637 -0.0029544851)
(-0.0029876714 -0.00052215479 -0.0026978445)
(-0.003058369 -0.00048857968 -0.002796331)
(-0.0032078251 -0.00028543774 -0.0027383626)
(-0.0033087805 -0.00021446166 -0.002807467)
(0.0034413696 0.00017747424 -0.0057930546)
(0.0033303804 0.00017834223 -0.0058559673)
(0.0032833808 4.3699078e-05 -0.0059719062)
(0.0031729161 0.0025935529 -0.0039342451)
(0.0032396282 0.0027808261 -0.0039381487)
(0.00044354101 0.0028849219 -0.0044395742)
(0.0028428985 0.0023496649 -0.0044347048)
(0.0028040959 0.0023550582 -0.0043121795)
(0.0030653442 0.002592521 -0.0039241337)
(0.00056948187 0.0025948931 -0.0044569848)
(0.00058281131 0.002388936 -0.0037968087)
(0.0004824909 0.0026300859 -0.0036253117)
(0.0030228433 0.0018344581 -0.00068806094)
(0.0031580974 0.0018474975 -0.00061079767)
(0.0031203658 0.0018650502 -0.00056767353)
(0.0028429916 0.0018390868 -0.00083550013)
(0.0029982137 0.0017968895 -0.00064578286)
(0.0032852343 0.0020671687 -0.00048677169)
(0.0032624211 0.001988688 -0.00044137338)
(0.0032659164 0.0023002266 -0.00047470245)
(0.003114034 0.0025217545 -0.00052501907)
(0.0028501106 0.0018655848 -0.00076596817)
(0.0027563474 0.0024474035 -0.0008346666)
(0.0026585648 0.0022665667 -0.00088169827)
(0.0026224053 0.002322068 -0.0008572184)
(0.0027508801 0.0024649699 -0.00077476155)
(0.0028689674 0.0025507885 -0.00070527394)
(0.0028876313 0.0025721111 -0.00073678757)
(0.0031704595 0.0031656728 -0.004609298)
(0.0031818417 0.0039112908 -0.0044959751)
(0.00314127 0.0038229667 -0.0044198572)
(0.003203416 0.003932537 -0.0042824117)
(0.0031143697 0.0043854252 -0.0039080773)
(0.0011221993 0.0038381519 -0.0052125528)
(0.0010275954 0.0037174041 -0.005195694)
(0.0012594288 0.004177853 -0.0051096492)
(0.00098965794 0.0037468795 -0.0052866852)
(0.00082817138 0.0035795581 -0.0050699976)
(0.00084560359 0.0036623918 -0.0051510069)
(0.00067869533 0.0036038246 -0.0049157566)
(0.0011256165 0.0039548962 -0.0052548698)
(0.0011784643 0.0041370583 -0.0051646172)
(0.0010877176 0.0044050473 -0.0049763722)
(0.00070748519 0.0036481761 -0.0050374758)
(0.0011061252 0.0043532909 -0.0049348343)
(0.0030339085 0.0039834413 -0.0047129504)
(0.0029031117 0.0041245385 -0.004819518)
(0.0030642028 0.0042553549 -0.0039059923)
(0.0008991338 0.0043799649 -0.0047463104)
(0.00080493296 0.0043260972 -0.0046673585)
(0.00075727457 0.0043494464 -0.0046961806)
(0.00069601153 0.0042211781 -0.004592564)
(0.00058182166 0.0037246116 -0.0047805584)
(0.0005565082 0.0037831601 -0.0048182653)
(0.0006410784 0.0041997419 -0.004655248)
(0.00082000514 0.0046574064 -0.0037223368)
(0.00072589121 0.0043097432 -0.0032540772)
(0.00067375897 0.0043842816 -0.0033143612)
(0.0012757367 0.0048486516 -0.0036180811)
(0.0012285125 0.0049611479 -0.0036610072)
(0.0031999436 0.0037313488 -0.0023049407)
(0.0032609105 0.0036458841 -0.0023353384)
(0.003080071 0.0037122362 -0.001738765)
(0.0031380185 0.0036552253 -0.0017170766)
(0.0013783608 0.0046242345 -0.0030570037)
(0.0013785774 0.0047093779 -0.003025986)
(0.00056783308 0.0044653034 -0.0020709923)
(0.00057257357 0.0044932039 -0.0019079942)
(0.00057569816 0.004567001 -0.0019213384)
(0.00047225304 0.0046795495 -0.0017581481)
(0.00051646173 0.002575394 -0.0045141205)
(0.00035501851 0.0028819584 -0.0044856947)
(0.00045006248 0.0025466664 -0.0036459563)
(0.0002925533 0.0030593027 -0.0038172358)
(0.00024863033 0.0029912444 -0.0038010553)
(-0.0026659782 -5.6200361e-06 -0.0033421579)
(-0.0030242889 0.00023310586 -0.0032176357)
(-0.0031668916 0.00025675725 -0.003282533)
(-0.0036279571 0.00058015948 -0.0034729613)
(-0.0037534123 0.00068713306 -0.0034318001)
(-0.0032214853 0.00016994729 -0.0029823994)
(-0.0028595827 0.0014644586 -0.0011441642)
(-0.0026004964 0.0012861234 -0.0007841601)
(-0.0027883928 0.0013252445 -0.00095872267)
(-0.0026903322 0.0013331785 -0.00080452336)
(-0.0028665105 0.0016024088 -0.0011699254)
(-0.003290009 7.4058327e-05 -0.0029608828)
(-0.00071628904 0.0048126383 -0.0033934636)
(-0.00092674966 0.0048888577 -0.0030116155)
(-0.0010010336 0.004849406 -0.0030281381)
(-0.00071179715 0.0051272614 -0.0037627837)
(-0.0010739564 0.0051680868 -0.0029074207)
(-0.0011475708 0.005115835 -0.0029340514)
(-0.0011718892 0.0053345496 -0.0029837633)
(-0.0034517013 0.0043554069 -0.0030480453)
(-0.0034452102 0.0043046479 -0.0029548982)
(-0.0035095054 0.0043928488 -0.0030362979)
(-0.0035241609 0.0049876878 -0.0031597493)
(0.00037786516 0.004313733 -0.0022671029)
(0.00046460616 0.0043735807 -0.0021912039)
(4.6242229e-05 0.0043257759 -0.0023188908)
(0.00010938254 0.0043417416 -0.00236988)
(0.0003250507 0.0043380181 -0.0023340289)
(-8.9686773e-06 0.0043653823 -0.0023089068)
(-0.00016844099 0.0044448543 -0.0021810569)
(-0.00012099809 0.004652258 -0.0018036698)
(-0.00010387663 0.0047653234 -0.0017595595)
(-0.00019610766 0.0045133075 -0.0021419947)
(-0.00023106241 0.0045048315 -0.0020536021)
(0.00041139266 0.0046555996 -0.0017257526)
(-4.9700557e-06 0.0046978127 -0.0016684926)
(-2.9513787e-05 0.0047186557 -0.001740892)
(-0.00053805939 0.0046301344 -0.00096479239)
(-0.00062605174 0.0046124225 -0.001042428)
(-0.00054086372 0.0045947796 -0.00065563322)
(-0.00088328344 0.0044692941 -0.0011636196)
(-0.00093020656 0.0044839773 -0.001139191)
(-0.00058420689 0.0046373196 -0.00093286124)
(-0.00055300578 0.0045215003 -0.00063007727)
(-0.00073810341 0.0043154084 -0.00045018355)
(-0.00077457068 0.0043391571 -0.00038723345)
(-0.0010241201 0.0043526893 -0.00112044)
(-0.0010495789 0.0044074766 -0.0011300964)
(-0.00099243817 0.0041330014 -0.00052307232)
(-0.0010063662 0.0041870154 -0.00050358276)
(-0.0030302089 0.0043475046 -0.0025972598)
(-0.0030894571 0.0039803232 -0.00098305685)
(-0.0036188676 0.0039997105 -0.00054610416)
(-0.00356983 0.0039586644 -0.0005120032)
(-0.003926998 0.0035431192 -0.00088973617)
(-0.0038692558 0.0035097443 -0.00085901428)
(0.0053149946 -0.0048492043 0.0018111354)
(0.0043735891 -0.0049950788 0.0017861284)
(0.004387971 -0.0049462845 0.0018299122)
(0.0043509728 -0.0047581084 0.0016898505)
(0.0043629413 -0.0046792272 0.0017242465)
(0.0051838718 -0.0039903345 0.00055114087)
(0.0051160203 -0.0039284737 0.00058155821)
(0.004768041 -0.0039845235 -3.5580939e-05)
(0.0044372627 -0.0039733313 9.792691e-05)
(0.0043687327 -0.0040007373 0.0002120006)
(0.0042756889 -0.0040538749 0.00040434886)
(0.0043683439 -0.0039736782 0.00059862208)
(0.0045041605 -0.004001217 0.00076639251)
(0.0044557434 -0.0039412146 0.00078051892)
(0.0049295952 -0.0043762485 0.0015146075)
(0.0049629612 -0.0043388205 0.0015654302)
(0.004453307 -0.0045104795 0.0016313826)
(0.0044447896 -0.00455258 0.0016029291)
(0.0035287719 -0.0037050629 0.00061708241)
(0.0034699482 -0.0036097032 0.00032397194)
(0.0035692088 -0.0036152382 0.00053856062)
(0.003537138 -0.0035976665 0.00038341345)
(0.0035541309 -0.0035477057 0.00081668579)
(0.003401573 -0.0033151123 0.0010214298)
(0.0034872761 -0.0033738923 0.0009572634)
(0.0033692089 -0.0031913279 0.00099650864)
(0.0032696037 -0.0030845671 0.00099477859)
(0.0033169913 -0.0030688907 0.00097335648)
(0.003237026 -0.0031362667 0.00011657085)
(0.0011440398 -0.0046161567 0.002708937)
(0.0036840895 -0.0007408894 0.0018541712)
(0.0034497331 -0.0013719484 0.0022834009)
(0.0037342792 -0.00075375004 0.0019301728)
(0.0036586109 -0.00055944076 0.0020868767)
(0.0036185228 -0.00051893567 0.0019975703)
(0.0026159028 -0.0013360701 9.1654481e-05)
(0.0024860299 -0.0015851803 0.00018164555)
(0.002599386 -0.0014130793 0.00016343682)
(0.0025516939 -0.0015370435 0.00023151406)
(0.0026192586 -0.0010659791 7.9533544e-05)
(0.0020669408 -0.0016838167 0.00029135027)
(0.0017776457 -0.0015159108 0.00024636497)
(0.0017467313 -0.0014455206 0.00014080011)
(0.0018483564 -0.0015643918 0.00021061431)
(0.0017228931 -0.0012986081 0.00011270391)
(0.0034154423 -0.0013564028 0.0022212041)
(0.0024151197 -0.0019021638 0.0024731781)
(0.0022268228 -0.0019299517 0.0024776023)
(0.0024131658 -0.0019223237 0.0025371793)
(0.0025396859 -0.0017690825 0.0026376545)
(0.0025895268 -0.0016429558 0.0026871695)
(0.0018363189 -0.0016790362 0.0026581907)
(0.0022330722 -0.0019774206 0.0025076929)
(0.0019717147 -0.0019201244 0.0025573063)
(0.0019669123 -0.0018614888 0.0025429227)
(0.0018895942 -0.0018206969 0.0026171128)
(0.0018385126 -0.0015759602 0.0027839269)
(0.0025865997 -0.0015467576 0.0027884771)
(0.0025117027 -0.0014166961 0.0028939242)
(0.0024832725 -0.0013784816 0.002862626)
(0.002370043 -0.0013223503 0.0029779202)
(0.0033420641 -0.00059807015 0.0025502567)
(0.0032966805 -0.00076747354 0.0026687842)
(0.0033518395 -0.0006272294 0.0026663484)
(0.0032348931 -0.00073436782 0.0026326017)
(0.0023720979 -0.0013288514 0.0029142254)
(0.0021202939 -0.0013284901 0.0029556828)
(0.002100698 -0.0012819165 0.0029237182)
(0.0018268172 -0.0014938161 0.0027719403)
(0.0010435833 -0.0012711034 0.0023356494)
(0.001101763 -0.001223524 0.002449177)
(0.0012043768 -0.0011339186 0.0025767025)
(0.0012257572 -0.00090939127 0.0026539986)
(0.0011469721 -0.00015603421 0.0032495065)
(0.0047711716 -0.0052754073 0.004122626)
(0.0047016395 -0.0053189583 0.0041642394)
(0.0046206275 -0.005238805 0.0041651619)
(0.004453938 -0.0050918004 0.0042784791)
(0.0044274298 -0.0049183718 0.0043821926)
(0.0050240089 -0.0046708407 0.0044997334)
(0.0044937376 -0.0047743456 0.00448428)
(0.0045044543 -0.0046879016 0.0044554016)
(0.0052110404 -0.0036385509 0.0045455014)
(0.0044791289 -0.0036217906 0.0044721416)
(0.0045319856 -0.0035883563 0.0045252112)
(0.004896244 -0.0046541854 0.0045997091)
(0.0049463548 -0.0037730485 0.0045879213)
(0.0048338231 -0.0046317098 0.0045620645)
(0.004634745 -0.003748996 0.0045393901)
(0.0047617592 -0.0038201138 0.0045584855)
(0.0048377085 -0.0037551667 0.0046293596)
(0.0046140272 -0.0036588549 0.0045847492)
(0.0049611237 -0.0029925543 0.004092135)
(0.0052933255 -0.0031734898 0.0043212622)
(0.0052591786 -0.0032220024 0.004267076)
(0.0050058072 -0.003006397 0.0041843113)
(0.0048699598 -0.0030114825 0.0041505592)
(0.0047834148 -0.0030113005 0.0041295714)
(0.0047550974 -0.0029938465 0.0041940948)
(0.0049023423 -0.0011596944 0.0051857233)
(0.004358755 -0.0012087681 0.0059583723)
(0.0043122228 -0.001174359 0.0058331368)
(0.0044087777 -0.0011063166 0.0059935814)
(0.0042995494 -0.0011033959 0.0058364584)
(0.00092476566 -0.0052270945 0.0024934656)