/*--------------------------------*- C++ -*----------------------------------*\
| =========                 |                                                 |
| \\      /  F ield         | OpenFOAM: The Open Source CFD Toolbox           |
|  \\    /   O peration     | Version:  2306                                  |
|   \\  /    A nd           | Website:  www.openfoam.com                      |
|    \\/     M anipulation  |                                                 |
\*---------------------------------------------------------------------------*/
FoamFile
{
    version     2.0;
    format      ascii;
    arch        "LSB;label=32;scalar=64";
    class       featureEdgeMesh;
    location    "constant/triSurface";
    object      SphereSE.eMesh;
}
// * * * * * * * * * * * * * * * * * * * * * * * * * * * * * * * * * * * * * //


// points:

2231
(
(-0.0054809349 -0.0046901293 -0.0035863968)
(-0.0053636925 -0.0049905851 -0.0037812365)
(-0.0054441867 -0.0048787845 -0.0036459132)
(-0.0052163182 -0.0044469927 -0.0034168768)
(-0.0044829762 -0.0032289447 -0.0011679642)
(-0.0044720778 -0.0030515394 -0.0010794364)
(-0.003671342 -0.0035345871 -0.001616782)
(-0.0057266466 -0.0024023619 -0.0042888289)
(-0.0053787585 -0.0023661274 -0.0042860317)
(-0.0050936234 -0.0023008557 -0.0047982181)
(-0.0052909339 -0.0028193048 -0.0013584257)
(-0.0051060431 -0.00015553506 -0.0033157559)
(-0.0047241198 -0.0027376227 -0.0010241149)
(-0.0041181697 -0.0020266701 -0.00093040569)
(-0.0034813778 -0.0016428204 -0.0012491429)
(0.0001957356 -0.0039147055 -0.0051278472)
(-0.00082738185 -0.0034697843 -0.0046975282)
(-0.0010400359 -0.0028493381 -0.004105113)
(0.00014689006 -0.0030804793 -0.0031157259)
(-0.0033786125 -0.0053014141 -0.0017708559)
(-0.0033500469 -0.0052481522 -0.0019110045)
(-0.0033579874 -0.0050625466 -0.0020630253)
(-0.0031358772 -0.0032887016 -0.0019660858)
(-0.003096405 -0.0030978615 -0.0017558131)
(-0.0030429089 -0.0030963845 -0.0017131423)
(-0.0032633618 -0.0030737482 -0.0014274344)
(-0.0027502039 -0.0022801417 -0.0047881491)
(-0.0029169768 -0.002288966 -0.0046574627)
(-0.0025172709 -0.0022549639 -0.0048166029)
(-0.0021538725 -0.0021759844 -0.0043533696)
(-0.0032834574 -0.0027060262 -0.0036043592)
(-0.0023543085 -0.002191091 -0.0040248162)
(-0.002538973 -0.0022421461 -0.0039150519)
(-0.0022511794 -0.0021797363 -0.0041136164)
(-0.0011543096 -0.0027020336 -0.00453613)
(-0.0011085272 -0.0026969337 -0.0043369853)
(-0.0023822975 -0.0014189351 -0.0010602484)
(-0.0023572338 -0.0006498755 -0.0017943433)
(-0.0019526635 -0.0018376266 -0.00070273876)
(-0.00050543295 -0.002477807 -0.00096971029)
(-0.00031609042 -0.0021833656 -0.00098609785)
(-0.0023202891 -0.00064500235 -0.0019346252)
(-0.0015111314 -0.00037111808 -0.0014971267)
(-0.0048808688 -0.0043848585 0.0021465621)
(-0.0048164511 -0.0045057414 0.0024017286)
(-0.0051805577 -0.0019555315 0.0036672684)
(-0.0050705681 -0.0010991767 0.0025412529)
(-0.0045218812 -0.0021946831 0.003236189)
(-0.0047323043 -0.0019415794 0.0029496714)
(-0.0046340586 -0.00040343916 0.0023685093)
(-0.0028063934 -0.0023388662 0.0016250922)
(-0.0028338814 -0.0021874462 0.0016655657)
(-0.0021835631 -0.0020917016 0.0014111619)
(-0.0027907002 -0.00030829618 0.00096823648)
(-0.0023017065 -0.00089882407 0.0013576974)
(-0.0021705367 -0.00081544649 0.0011816737)
(-0.00016442826 -0.0050731404 0.0019172118)
(-0.0030254065 -0.00053334376 0.0027226177)
(-0.0028714179 -1.2227334e-05 0.0032872711)
(-0.0056700427 0.00020995876 -0.0034445312)
(-0.0040693162 0.0030228277 -0.0033274661)
(-0.0045051696 0.0028073075 -0.00051848777)
(-0.0041469005 0.0023946739 -0.0029413253)
(-0.004161316 0.0023517567 -0.00066575455)
(-0.00052131852 0.0019729654 -0.0032434303)
(-0.00046634674 0.0021880674 -0.0033305348)
(-0.00044854498 0.0021706386 -0.0032689564)
(-0.0004215017 0.0023072842 -0.0032600046)
(-0.00064788619 0.0025697504 -0.002995549)
(-0.0006163083 0.0025764252 -0.0029639164)
(-0.0042342888 0.0031549991 -0.0033056641)
(-0.0039720889 0.0040409048 -0.0031585223)
(-0.0040912083 0.0040258109 -0.0032012216)
(-0.0048780646 0.0036916989 -0.00062105013)
(-0.0046344511 0.004088216 -0.00062658871)
(-0.0020623445 0.0039619389 -0.0039955573)
(-0.0019288221 0.003811223 -0.0040430203)
(-0.0019360394 0.0038594478 -0.0039864075)
(-0.0024109739 0.0037770937 -0.0035726554)
(-0.0024114759 0.003696538 -0.0034361777)
(-0.0023475215 0.0037014545 -0.0033049062)
(-0.0015525538 0.003733479 -0.0032886965)
(-0.0044859294 0.0027397559 -0.00046205986)
(-0.0033488339 0.00012680469 0.0028113346)
(-0.0033147424 0.00018193712 0.002751905)
(-0.0043295589 0.00075168675 0.0036901305)
(-0.0031224159 0.00019465433 0.0031983019)
(-0.0037363698 0.00060765026 0.0043146326)
(-0.003457142 0.00063819485 0.003936159)
(-0.00071653677 0.0013317117 0.002367727)
(-0.001248695 0.0019044434 0.0021106168)
(-0.0014175875 0.0018738233 0.002424208)
(-0.0036077048 0.0049227248 0.00067155575)
(-0.0037971295 0.0054759285 0.00087479921)
(-0.0032371767 0.0056232451 0.0011794148)
(-0.0030560764 0.0054557626 0.0011976832)
(-0.0031482494 0.0045600464 0.0035582515)
(-0.0031475211 0.004804878 0.003601992)
(-0.0020428617 0.0044481368 -0.00054213777)
(-0.0018529366 0.0045896019 -0.00049858773)
(-0.0018879175 0.0046688537 0.00016344432)
(-0.0007423372 0.0045736427 0.00054499088)
(-0.0005134712 0.004429312 0.00062964251)
(-0.00072155101 0.0041568787 0.0011093398)
(-0.0013077417 0.0035452521 0.003412399)
(-0.0012182239 0.0034491452 0.0035835062)
(-0.0012005093 0.0034539211 0.0036424114)
(-0.0011011199 0.0039444617 0.0031067035)
(-0.00076110335 0.0036255778 0.0038781981)
(0.0016825614 -0.0047082771 -0.0053003328)
(0.0019347039 -0.0051887981 -0.0049419384)
(2.5746878e-05 -0.0039536981 -0.0049807415)
(0.0015471918 -0.0044072364 -0.0046277083)
(0.00069439365 -0.0036248814 -0.003546173)
(0.00022276165 -0.0029874654 -0.0031761373)
(0.0023177019 -0.00049822731 -0.0035248608)
(0.00028502988 -0.0029596481 -0.0031241525)
(0.00086385803 -0.0029489896 -0.0031823853)
(6.7075714e-05 -0.0011908631 -0.0026139503)
(0.00027087564 -0.0016506598 -0.0023463238)
(0.0025490164 -0.001822562 -0.0024885559)
(0.0025798394 -0.001863739 -0.0025007315)
(0.0023614406 -0.0013415888 -0.0033777365)
(0.0028678025 -0.0013941629 -0.0019784104)
(0.0028285696 -0.001509096 -0.0018698471)
(0.0044336398 -0.0048481659 -0.0051571848)
(0.0044156215 -0.0034628927 -0.0053079156)
(0.0043658563 -0.0032930258 -0.005297957)
(0.0045216219 -0.0036692165 -0.004585865)
(0.0045774025 -0.0037512556 -0.0047485805)
(0.00420393 -0.0030529872 -0.0046268804)
(0.0051507973 -0.0010595741 -0.0045917453)
(0.0051742853 -0.0011302098 -0.0047349278)
(0.0056009828 -0.0011439086 -0.0042884015)
(0.0061001922 -0.0010597385 -0.0050288439)
(0.0035132929 -0.00047278125 -0.0011895769)
(0.0024340837 -0.0050770231 -0.00096477661)
(0.00037071155 -0.0053066388 0.0018871878)
(0.00054911477 -0.0052390508 0.0018086848)
(0.00031612208 -0.0045879064 0.0014484054)
(0.0015244721 -0.004695666 0.0016757851)
(0.0012642578 -0.0040573655 0.0014565377)
(0.0015636687 -0.0038572024 0.0016204561)
(0.0022338773 -0.0037886866 0.002994807)
(0.002259796 -0.0038013023 0.0027299984)
(0.0021621096 -0.0036375332 0.003184157)
(0.0032917135 -0.0047694622 -0.00080087595)
(0.0036810194 -0.0034719745 0.00026469864)
(0.0039745481 -0.0042376057 0.00066081388)
(0.0039212755 -0.0041194367 0.0008097454)
(0.0037252516 -0.0040746219 0.0032537137)
(0.0038178018 -0.0041005947 0.0031648842)
(0.0036505577 -0.0039851689 0.003547369)
(0.0043155183 -0.0038369629 0.0030486663)
(0.0021927045 -0.0011903052 -0.00091971084)
(0.0021704179 -0.000605701 -0.00083570508)
(0.0039829467 -1.7541461e-06 -0.00068331277)
(0.0018509463 -0.0022383258 0.002905509)
(0.002049698 -0.0018162453 0.002628067)
(0.002120662 -0.0017052842 0.0027944096)
(0.0019745235 -0.00025858264 0.0029888717)
(0.0018179356 -7.160008e-05 0.0031687715)
(0.0016089766 0.0013920688 -0.0042141676)
(0.0010183598 0.0028318702 -0.0033920724)
(0.0018835454 0.00075805699 -0.0046693115)
(0.001907907 0.00079381047 -0.0045228079)
(0.00084470073 0.0033662706 -0.002963345)
(0.00035973312 0.0046388316 -0.0030232603)
(0.0019865022 0.0042823707 -0.0030996334)
(0.0020269104 0.0035071145 -0.001066457)
(0.0024255668 0.0029848949 -0.00095770648)
(0.0022526146 0.0038468507 -0.00087880716)
(0.0027378644 0.0031682081 -0.00074679684)
(0.0035714027 0.00090392726 -0.0034762695)
(0.0052865553 0.0032098 -0.0038838447)
(0.0036196955 0.0015996867 -0.00317221)
(0.0038348208 0.00011606235 -0.00063469307)
(0.00466108 0.0020297379 -0.00238124)
(0.0044884994 0.0028122799 -0.0024248273)
(0.0053911568 0.0015421449 -0.0025088354)
(0.0052239751 0.0017579063 -0.0018964298)
(0.0054055513 0.0032488587 -0.0039904439)
(0.005709304 0.0039250623 -0.0037374806)
(0.005543862 0.0039787977 -0.0036076151)
(0.004546667 0.0030828039 -0.0019687242)
(0.0046155457 0.003419925 -0.0018949099)
(0.004601791 0.0035237488 -0.001904848)
(0.004363785 0.0040536509 -0.0013344083)
(0.003667112 0.0043964344 -0.00087223854)
(0.0043713967 0.0042452016 -0.0014393749)
(0.0014122487 0.0016852538 0.00022814143)
(0.0013550348 0.0016783946 0.00024307426)
(0.0013898541 0.0016554645 0.00044090068)
(0.0010553864 0.0018274509 0.00075595966)
(0.0014213505 5.3963624e-05 0.0023908154)
(0.00093434704 0.0018611024 0.00011991058)
(0.00088273408 0.0018777237 0.00066232542)
(0.0034417524 0.0014550933 0.0011872761)
(0.0034604291 0.0018655364 0.0013322174)
(0.0034446563 0.0018193522 0.0013694544)
(0.003661958 0.0018848493 0.001593322)
(0.003617736 0.0018590665 0.0015982869)
(0.0038259202 0.0017053788 0.0017298418)
(0.0012342199 0.0054260991 0.0019501601)
(0.0011739642 0.0055290307 0.002050689)
(0.0044429717 0.0034567476 0.00019503059)
(0.0049866545 0.0033183512 0.0012831078)
(0.0052166055 0.0033670631 6.2724575e-07)
(0.0050725308 0.0033530588 0.0013051052)
(0.0013386966 0.00011703232 0.0025097295)
(0.0013451115 0.00023049023 0.0029091784)
(0.0014742292 0.00083787134 0.0035006613)
(0.002038728 0.0014676745 0.003861072)
(0.002266699 0.001189779 0.0038815713)
(0.0035942099 0.00014897296 0.0031717126)
(0.0040546018 0.00062610162 0.002677212)
(0.0040743905 0.00070678303 0.0028229305)
(0.0040089726 0.00072373403 0.0028947708)
(0.0036006966 0.00024074549 0.0032365792)
(0.003625683 0.0018572821 0.0032751202)
(0.0031243856 0.0020050607 0.0035249437)
(0.0032123034 0.0012759683 0.0037946836)
(-0.0053705089 -0.0045415084 -0.0034712323)
(-0.0054538334 -0.0047627571 -0.0036067986)
(-0.0053350199 -0.004549901 -0.0034041912)
(-0.0045978483 -0.0047487398 -0.0038110595)
(-0.0045536309 -0.0048234183 -0.0037765061)
(-0.0045933928 -0.0047152648 -0.003744161)
(-0.0046110698 -0.0045704152 -0.0036566304)
(-0.0046701133 -0.0044763656 -0.0035769627)
(-0.0046054712 -0.0045654504 -0.0036015813)
(-0.0047728317 -0.0044370387 -0.0034526095)
(-0.0050057778 -0.0043660775 -0.0034206656)
(-0.0049119485 -0.0044124639 -0.0034173224)
(-0.0035720239 -0.0031526238 -0.0036001543)
(-0.0035640392 -0.0032891519 -0.0035087871)
(-0.0036315799 -0.0031262762 -0.0035843153)
(-0.0035945582 -0.0032236325 -0.0034972122)
(-0.0036046733 -0.0052899877 -0.0014190222)
(-0.0036818993 -0.0052906973 -0.0014424548)
(-0.0038551874 -0.0050090235 -0.0013720295)
(-0.005153222 -0.0033341427 -0.0015600184)
(-0.0037804539 -0.0046004429 -0.0017947112)
(-0.0045558149 -0.0033670482 -0.0012672581)
(-0.0036642088 -0.0033505275 -0.0014406755)
(-0.0036261294 -0.0033841929 -0.0014435221)
(-0.0035583484 -0.0032503773 -0.0013996223)
(-0.0034852596 -0.0032071313 -0.0013402104)
(-0.0058015501 -0.0022290335 -0.0051908791)
(-0.005887297 -0.0024101054 -0.0050599845)
(-0.006001397 -0.0024246522 -0.0048536044)
(-0.0058919513 -0.002336618 -0.0050518857)
(-0.0060101468 -0.002351447 -0.0048831091)
(-0.0056844149 -0.0023204032 -0.0051506236)
(-0.0054690898 -0.0022747209 -0.0051482525)
(-0.0055765375 -0.002374412 -0.0052070213)
(-0.0059281038 -0.0024768752 -0.0044140071)
(-0.0059115076 -0.0023962273 -0.004390711)
(-0.0051747011 -0.002362242 -0.0043952661)
(-0.005148686 -0.002274415 -0.0044397986)
(-0.0050855731 -0.002271865 -0.0046671606)
(-0.0035276148 -0.0029251375 -0.0036518923)
(-0.0060594017 -7.4603129e-05 -0.0033220556)
(-0.0057142084 -0.00070343167 -0.0030618189)
(-0.0057296515 -0.00062191999 -0.0029192124)
(-0.0057741087 -0.00060890522 -0.0029957164)
(-0.0051831594 -0.0004834556 -0.0031057638)
(-0.0051200124 -0.00039469358 -0.0032438121)
(-0.0053112684 -0.0029031439 -0.001457944)
(-0.0053340802 -0.0029741139 -0.001433521)
(-0.0052497345 -0.0026507126 -0.0013717175)
(-0.0052748332 -0.0027770931 -0.0012818435)
(-0.0051664747 -0.0026789224 -0.0011497112)
(-0.0048985276 -0.0026675113 -0.00097822072)
(-0.0048466856 -0.002655182 -0.0010643601)
(-0.0046150954 -0.0028449716 -0.00098714232)
(-0.0045706984 -0.0028338362 -0.0010309033)
(-0.0036786459 -0.0024993098 -0.0010311934)
(-0.0037222737 -0.002436108 -0.00094883284)
(-0.0040242556 -0.0016880077 -0.0009880173)
(-0.0039038598 -0.0015965737 -0.0010788664)
(-0.0034080222 -0.0033962578 -0.0032629112)
(-0.0033601597 -0.0033437042 -0.0031810715)
(-0.003070116 -0.0032226695 -0.0030604512)
(-0.003227633 -0.0032654107 -0.0031021368)
(-0.0029625921 -0.0029132809 -0.0031119108)
(-0.0029404215 -0.0027889051 -0.003126689)
(3.5327394e-05 -0.0040202765 -0.0045145415)
(-5.0997827e-05 -0.003938755 -0.0047517968)
(8.0801547e-06 -0.003961252 -0.0045477683)
(-0.00090477942 -0.003354256 -0.0048254016)
(-0.00079837814 -0.003551895 -0.0044890968)
(-0.00075065205 -0.0035206182 -0.0043381113)
(0.0001463131 -0.0040419251 -0.0043647126)
(-0.00094541861 -0.0031472193 -0.0039732852)
(-0.00092926947 -0.0029644798 -0.003999657)
(-0.0034325323 -0.0053726174 -0.0017529153)
(-0.0034009363 -0.0053341659 -0.0016955249)
(-0.0033740401 -0.0035351512 -0.0020469534)
(-0.0032266313 -0.0034270938 -0.0021036533)
(-0.0033338293 -0.0035606436 -0.0020164009)
(-0.0032026656 -0.0034315125 -0.002025709)
(-0.0030880379 -0.0031358758 -0.0018412499)
(-0.0030673775 -0.003186502 -0.00183754)
(-0.0031482554 -0.0030312338 -0.0016279281)
(-0.0031225006 -0.0030506612 -0.0015683197)
(-0.0021525812 -0.0022308519 -0.0046535674)
(-0.002225446 -0.0021845084 -0.0046788016)
(-0.0021609697 -0.0021885461 -0.0041897087)
(-0.002194589 -0.0021367399 -0.0042145336)
(-0.0030536707 -0.0027040918 -0.0033910158)
(-0.0028564483 -0.0022688205 -0.0040627047)
(-0.0029649069 -0.0027081845 -0.0033204383)
(-0.0029806332 -0.0026721554 -0.0032503002)
(-0.002934326 -0.0027827439 -0.0031984455)
(-0.0012029968 -0.0027237628 -0.0046477201)
(-0.0011444334 -0.0027019717 -0.0046252655)
(-0.0011803475 -0.0026981835 -0.0043387492)
(-0.0011286596 -0.0026701228 -0.0044858046)
(-0.001110442 -0.0027502994 -0.0042354763)
(-0.0033390522 -0.0018213494 -0.0012781466)
(-0.0032362766 -0.0018558726 -0.0012320867)
(-0.0025242558 -0.0019049919 -0.0011090911)
(-0.0025041113 -0.0017203684 -0.0011336417)
(-0.0024147201 -0.0019990061 -0.0010861875)
(-0.0024862839 -0.0018489673 -0.0011463449)
(-0.0023734933 -0.0020708498 -0.00099444622)
(-0.0024717753 -0.0016083443 -0.0011496637)
(-0.0024783579 -0.0015709517 -0.0011247001)
(-0.0022580554 -0.0013514059 -0.0009504254)
(-0.0023358152 -0.00068287645 -0.0015343316)
(-0.00062350975 -0.0025218395 -0.00094646169)
(-0.00044340314 -0.0024628136 -0.0010344316)
(-0.0021184543 -0.0013620937 -0.00091319392)
(-3.4621917e-05 -0.0010809531 -0.0025717383)
(-0.0022019874 -0.0021035918 -0.00091695134)
(-0.0020511048 -0.0020484221 -0.0007451009)
(-0.0022057286 -0.0021048328 -0.00086612999)
(-0.0020161923 -0.0019924119 -0.00077157142)
(-0.0010109167 -0.0022131838 -0.00067777419)
(-0.00086645084 -0.0025186837 -0.00084198313)
(-0.00092566758 -0.0024017985 -0.00076285098)
(-0.0020973207 -0.0013928944 -0.00083067035)
(-0.0019412632 -0.0015579606 -0.00068968069)
(-0.0019580349 -0.00154708 -0.00075857295)
(-0.00081760436 -0.0025033881 -0.00080988277)
(-0.00058121514 -0.0025383658 -0.00092645409)
(-0.00091940723 -0.0024710135 -0.00071908254)
(-0.00037468597 -0.00248178 -0.00099295285)
(-0.00037361588 -0.0023770216 -0.00099532213)
(-0.00033909502 -0.0019953996 -0.00090463413)
(-0.00067392271 -0.0018332959 -0.00072820624)
(-0.00058808643 -0.0018250137 -0.00072096055)
(-0.00049821474 -0.0018393137 -0.00077693211)
(-0.00041678501 -0.0018884498 -0.00086991023)
(-0.00054418668 -0.0017729267 -0.00080237072)
(-0.00036803214 -0.0018691313 -0.00083019305)
(-0.0015525408 -0.00025635213 -0.0018810136)
(-0.0014585867 -0.00032497849 -0.0017980686)
(-0.0022774199 -0.00077807298 -0.0015232908)
(-0.0022410918 -0.00069602393 -0.0014019585)
(-0.002142509 -0.00078219175 -0.0013515512)
(-0.0019603311 -0.0006710249 -0.0012523714)
(-0.0015980043 -0.00042231614 -0.0012501203)
(-0.0016023419 -0.00051020132 -0.0013383264)
(-0.0014931173 -0.00031230086 -0.0017315121)
(-0.0014679558 -0.00036875997 -0.0016220389)
(-0.0014630896 -0.00027383538 -0.001647952)
(-0.0047135334 -0.0040532132 0.001896447)
(-0.0048018391 -0.0040330011 0.0019147624)
(-0.0046727573 -0.0039302381 0.0019265828)
(-0.0044738641 -0.0037744928 0.002042131)
(-0.0045589334 -0.00055040559 0.0022773598)
(-0.004651689 -0.0045224302 0.0026323055)
(-0.0046464913 -0.004409953 0.002706463)
(-0.0035742428 -0.0051086219 0.0033649779)
(-0.0042293263 -0.0038340278 0.0025163568)
(-0.0042164344 -0.0037661514 0.002387648)
(-0.0042826184 -0.0036950207 0.0023501138)
(-0.0049971994 -0.0018287003 0.0029354044)
(-0.0049259868 -0.001800389 0.0029722736)
(-0.00501282 -0.0021060063 0.0037604538)
(-0.0052330773 -0.001852558 0.0035355114)
(-0.0050746659 -0.0020076432 0.0037444406)
(-0.0048952955 -0.0021084496 0.0037988708)
(-0.0051631816 -0.0010803365 0.0025820178)
(-0.0049876217 -0.0011528987 0.0024584462)
(-0.0050311093 -0.0011072233 0.0026030284)
(-0.004946054 -0.0011159489 0.002532626)
(-0.0045131128 -0.0022310596 0.0034063072)
(-0.0045875497 -0.0020450773 0.0030405172)
(-0.0046616355 -0.0010637366 0.0024060789)
(-0.004784476 -0.0010648095 0.0024034609)
(-0.0045665689 -0.00072788959 0.0023281216)
(-0.0047848704 -0.00024812343 0.0024698139)
(-0.0047115185 -0.00022231555 0.002511906)
(-0.0034296908 -6.7623798e-05 0.0026623062)
(-0.003263121 -0.00027092686 0.0026018671)
(-0.0047169006 -0.0022532749 0.0036731823)
(-0.0046028877 -0.0022641555 0.0035483357)
(-0.0047444687 -0.0021802713 0.003754769)
(-7.8920275e-05 -0.0046191635 0.0015782691)
(-2.8521754e-05 -0.0045716395 0.0016120044)
(-0.0018664589 -0.0017252117 -0.00070266286)
(-0.0019199396 -0.0017290949 -0.0006718575)
(-0.0024229162 -0.0024710852 0.0013489132)
(-0.002865836 -0.0023909644 0.0015710085)
(-0.0027353694 -0.0024637571 0.0015399107)
(-0.0024813074 -0.0025553219 0.0014048605)
(-0.0028142366 -0.0020792088 0.0017210753)
(-0.0028442671 -0.0020282539 0.0017144266)
(-0.0022395332 -0.0023681833 0.0012780298)
(-0.0022527613 -0.0023791809 0.001346881)
(-0.0021880963 -0.002197559 0.0013432303)
(-0.002149886 -0.0022273408 0.0013683843)
(-0.0022171745 -0.0019347812 0.0014530788)
(-0.0023271767 -0.0018097213 0.0015444602)
(-0.002196955 -0.0019257581 0.0015121377)
(-0.0023334594 -0.0018478339 0.0015862263)
(-0.0023614536 -0.00037750322 0.00081768353)
(-0.0022248183 -0.00050957361 0.00086644106)
(-0.0021785996 -0.00053706905 0.00090750866)
(-0.002701879 -0.00030124001 0.00087574357)
(-0.002548968 -0.00092396 0.0014831186)
(-0.0025362498 -0.00086832792 0.0015432904)
(-0.0029330826 -0.00036488054 0.0010968451)
(-0.0029881354 -0.00052922638 0.0013068481)
(-0.00096130976 -0.0020995098 -0.00065477239)
(-0.00094840536 -0.0022682711 -0.00067623984)
(-0.00096974196 -0.0021229647 -0.00059708348)
(-0.00085601164 -0.0018535363 -0.00066255452)
(-0.00078541925 -0.0018824916 -0.00064992579)
(-0.0030598883 -0.0048945877 0.0032589133)
(-0.003006001 -0.0046764119 0.0032377546)
(-0.0030124001 -0.0044754934 0.0031208345)
(-0.0030710325 -0.0044735908 0.0032039606)
(-0.000117274 -0.0052175298 0.0019439342)
(-8.6632092e-05 -0.0051573245 0.0019781361)
(-0.00019170111 -0.0049703098 0.0019059922)
(-0.0029554749 -0.00056999642 0.0028355694)
(-0.0026988871 -0.00052215485 0.0029867296)
(-0.0027973983 -0.00048857974 0.0030573928)
(-0.0027394821 -0.0002854378 0.0032068691)
(-0.0028086216 -0.0002144617 0.0033078003)
(-0.0057918532 0.00017747423 -0.0034433918)
(-0.0058548045 0.00017834222 -0.0033324244)
(-0.0059707602 4.3699052e-05 -0.0032854653)
(-0.0039331373 0.0025935532 -0.0031742894)
(-0.0039370181 0.0027808263 -0.0032410028)
(-0.0044394191 0.0028849221 -0.0004450907)
(-0.004433712 0.0023496649 -0.0028444466)
(-0.0043112007 0.0023550582 -0.0028056011)
(-0.0039230636 0.0025925213 -0.0030667139)
(-0.004456786 0.0025948933 -0.00057103764)
(-0.0037966049 0.002388936 -0.00058413669)
(-0.0036251431 0.0026300862 -0.00048375642)
(-0.00068700593 0.0018344582 -0.0030230838)
(-0.00060969545 0.0018474977 -0.0031583109)
(-0.00056658452 0.0018650503 -0.0031205642)
(-0.00083450787 0.0018390869 -0.0028432836)
(-0.00064473646 0.0017968896 -0.0029984394)
(-0.00048562512 0.0020671687 -0.0032854045)
(-0.00044023478 0.001988688 -0.0032625755)
(-0.00047356263 0.0023002266 -0.0032660824)
(-0.00052393228 0.0025217547 -0.0031142174)
(-0.00076497346 0.0018655849 -0.0028503782)
(-0.0008337046 0.0024474035 -0.0027566389)
(-0.00088077039 0.0022665667 -0.0026588729)
(-0.00085630314 0.002322068 -0.0026227047)
(-0.00077380147 0.0024649701 -0.0027511509)
(-0.00070427265 0.0025507887 -0.0028692137)
(-0.00073577976 0.0025721113 -0.0028878888)
(-0.0046081915 0.003165673 -0.0031720684)
(-0.0044948645 0.0039112908 -0.003183411)
(-0.0044187605 0.0038229669 -0.0031428128)
(-0.0042812936 0.003932537 -0.0032049108)
(-0.0039069904 0.0043854252 -0.0031157339)
(-0.0052121608 0.0038381522 -0.0011240188)
(-0.0051953355 0.0037174043 -0.001029409)
(-0.0051092096 0.004177853 -0.0012612124)
(-0.0052863397 0.0037468798 -0.00099150324)
(-0.0050697085 0.0035795583 -0.00082994113)
(-0.0051507112 0.003662392 -0.00084740156)
(-0.0049155196 0.0036038249 -0.00068041123)
(-0.0052544763 0.0039548962 -0.0011274507)
(-0.005164206 0.0041370583 -0.001180267)
(-0.0049759923 0.0044050473 -0.0010894546)
(-0.0050372286 0.0036481763 -0.00070924358)
(-0.0049344478 0.0043532909 -0.0011078478)
(-0.0047118915 0.0039834413 -0.0030355537)
(-0.0048185047 0.0041245385 -0.0029047939)
(-0.0039049226 0.0042553549 -0.0030655663)
(-0.0047459966 0.0043799649 -0.00090079056)
(-0.0046670772 0.0043260972 -0.00080656214)
(-0.0046959161 0.0043494464 -0.00075891381)
(-0.0045923209 0.0042211781 -0.00069761463)
(-0.0047803549 0.0037246118 -0.00058349036)
(-0.0048180707 0.0037831604 -0.00055819005)
(-0.004655024 0.0041997419 -0.00064270338)
(-0.0037220505 0.0046574068 -0.00082130451)
(-0.0032538236 0.0043097432 -0.00072702719)
(-0.0033141258 0.0043842816 -0.00067491597)
(-0.0036176357 0.0048486521 -0.0012769997)
(-0.0036605783 0.0049611484 -0.0012297905)
(-0.0023038238 0.003731349 -0.0032007482)
(-0.0023342003 0.0036458843 -0.0032617259)
(-0.0017376901 0.0037122364 -0.0030806782)
(-0.0017159814 0.0036552255 -0.0031386181)
(-0.0030565225 0.004624235 -0.001379428)
(-0.0030255048 0.0047093784 -0.0013796338)
(-0.0020707939 0.0044653038 -0.00056855613)
(-0.0019077943 0.0044932044 -0.00057323975)
(-0.0019211373 0.0045670015 -0.000576369)
(-0.0017579831 0.00467955 -0.00047286693)
(-0.0045139398 0.0025753942 -0.00051803747)
(-0.0044855708 0.0028819586 -0.00035658432)
(-0.0036457989 0.0025466667 -0.00045133522)
(-0.0038171336 0.0030593029 -0.00029388582)
(-0.0038009682 0.0029912447 -0.0002499572)
(-0.0033430881 -5.6200661e-06 0.0026648114)
(-0.0032186909 0.00023310585 0.0030231657)
(-0.003283638 0.00025675725 0.0031657456)
(-0.0034742272 0.00058015948 0.0036267447)
(-0.0034331097 0.00068713306 0.0037522144)
(-0.0029835235 0.00016994728 0.0032204441)
(-0.0011451622 0.0014644586 0.0028591831)
(-0.00078506768 0.0012861234 0.0026002224)
(-0.00095969578 0.0013252445 0.002788058)
(-0.00080546224 0.0013331785 0.0026900512)
(-0.0011709258 0.0016024089 0.0028661019)
(-0.0029620309 7.4058305e-05 0.0032889755)
(-0.0033937134 0.0048126387 0.0007151044)
(-0.0030119387 0.0048888582 0.00092569832)
(-0.0030284873 0.0048494064 0.00099997642)
(-0.0037630319 0.0051272619 0.00071048364)
(-0.0029077954 0.0051680873 0.0010729413)
(-0.0029344517 0.0051158355 0.0011465466)
(-0.0029841722 0.00533455 0.0011708476)
(-0.0030492498 0.0043554069 0.0034506372)
(-0.0029561003 0.0043046479 0.0034441785)
(-0.0030375225 0.0043928488 0.0035084453)
(-0.0031609791 0.0049876883 0.0035230578)
(-0.0022669709 0.004313733 -0.00037865667)
(-0.0021910416 0.0043735807 -0.00046537118)
(-0.0023188745 0.0043257759 -4.7051813e-05)
(-0.0023698416 0.0043417416 -0.00011020992)
(-0.0023339153 0.0043380181 -0.00032586558)
(-0.0023089098 0.0043653823 8.1625767e-06)
(-0.0021811156 0.0044448548 0.00016767951)
(-0.001803712 0.0046522585 0.00012036832)
(-0.0017595957 0.0047653238 0.00010326225)
(-0.0021420629 0.0045133079 0.00019535981)
(-0.0020536827 0.004504832 0.00023034541)
(-0.0017256089 0.0046556001 -0.00041199522)
(-0.0016684942 0.0046978132 4.3874606e-06)
(-0.0017409022 0.0047186562 2.8905924e-05)
(-0.00096498011 0.0046301349 0.00053772237)
(-0.0010426464 0.004612423 0.00062568765)
(-0.00065582199 0.00459478 0.00054063462)
(-0.0011639278 0.0044692946 0.00088287704)
(-0.0011395155 0.0044839778 0.00092980871)
(-0.00093306508 0.0046373201 0.00058388105)
(-0.00063027022 0.0045215008 0.00055278558)
(-0.00045044115 0.0043154084 0.00073794601)
(-0.00038750377 0.0043391571 0.00077443523)
(-0.0011207974 0.0043526893 0.0010237289)
(-0.0011304626 0.0044074771 0.0010491842)
(-0.00052341865 0.0041330014 0.00099225529)
(-0.00050393399 0.0041870154 0.0010061902)
(-0.0025983173 0.0043475046 0.0030293022)
(-0.00098413508 0.0039803232 0.0030891136)
(-0.00054736715 0.0039997105 0.0036186767)
(-0.00051324908 0.0039586644 0.0035696509)
(-0.00089110667 0.0035431194 0.0039266874)
(-0.00086036464 0.0035097445 0.0038689557)
(0.0018129903 -0.0048492048 -0.0053143627)
(0.0017876546 -0.0049950792 -0.0043729655)
(0.0018314435 -0.0049462849 -0.0043873331)
(0.0016913689 -0.0047581089 -0.0043503833)
(0.0017257691 -0.0046792277 -0.0043623401)
(0.00055294996 -0.0039903349 -0.00518368)
(0.00058334367 -0.0039284742 -0.0051158178)
(-3.3916906e-05 -0.0039845239 -0.004768054)
(9.9475496e-05 -0.0039733313 -0.0044372287)
(0.00021352526 -0.0040007373 -0.0043686591)
(0.00040584104 -0.0040538753 -0.0042755483)
(0.0006001466 -0.0039736787 -0.0043681352)
(0.0007679644 -0.0040012174 -0.0045038937)
(0.00078207394 -0.0039412146 -0.0044554714)
(0.0015163277 -0.0043762485 -0.0049290666)
(0.0015671621 -0.0043388209 -0.004962415)
(0.0016329368 -0.00451048 -0.004452738)
(0.0016044802 -0.0045525804 -0.0044442303)
(0.0006183139 -0.0037050631 -0.0035285568)
(0.00032518292 -0.0036097034 -0.0034698355)
(0.00053980621 -0.0036152385 -0.0035690211)
(0.00038464786 -0.0035976667 -0.0035370043)
(0.00081792613 -0.0035477059 -0.0035538462)
(0.0010226169 -0.0033151126 -0.0034012168)
(0.00095848041 -0.0033738925 -0.0034869423)
(0.00099768443 -0.0031913281 -0.0033688613)
(0.00099591957 -0.0030845674 -0.0032692568)
(0.00097451406 -0.0030688909 -0.0033166518)
(0.00011770055 -0.003136267 -0.0032369855)
(0.0027093361 -0.0046161572 -0.0011430946)
(0.0018554567 -0.00074088946 -0.0036834427)
(0.0022846046 -0.0013719485 -0.0034489366)
(0.0019314759 -0.00075375009 -0.0037336058)
(0.0020881533 -0.00055944081 -0.0036578828)
(0.0019988329 -0.00051893573 -0.0036178259)
(9.256741e-05 -0.0013360702 -0.0026158711)
(0.00018251315 -0.0015851804 -0.0024859668)
(0.00016434398 -0.0014130794 -0.0025993292)
(0.00023240456 -0.0015370436 -0.0025516134)
(8.0447644e-05 -0.0010659792 -0.0026192311)
(0.00029207161 -0.0016838168 -0.0020668395)
(0.00024698535 -0.001515911 -0.00177756)
(0.00014140969 -0.0014455207 -0.0017466825)
(0.00021125935 -0.0015643919 -0.0018482832)
(0.00011330517 -0.0012986083 -0.0017228541)
(0.002222396 -0.0013564029 -0.0034146674)
(0.0024740207 -0.001902164 -0.0024142568)
(0.0024783793 -0.0019299518 -0.0022259583)
(0.0025380212 -0.0019223238 -0.0024122805)
(0.0026385407 -0.0017690826 -0.0025387658)
(0.0026880731 -0.0016429559 -0.0025885892)
(0.0026588314 -0.0016790363 -0.0018353914)
(0.0025084722 -0.0019774209 -0.0022321972)
(0.0025579943 -0.0019201245 -0.0019708225)
(0.0025436091 -0.0018614889 -0.0019660252)
(0.0026177722 -0.001820697 -0.0018886812)
(0.0027845684 -0.0015759603 -0.0018375413)
(0.0027893796 -0.0015467578 -0.0025856267)
(0.0028948006 -0.0014166962 -0.0025106929)
(0.0028634924 -0.0013784817 -0.0024822736)
(0.0029787472 -0.0013223505 -0.0023690038)
(0.0025514229 -0.00059807021 -0.0033411745)
(0.0026699346 -0.0007674736 -0.0032957494)
(0.0026675179 -0.00062722946 -0.0033509091)
(0.0026337304 -0.00073436787 -0.0032339746)
(0.0029150532 -0.0013288516 -0.0023710812)
(0.0029564225 -0.0013284902 -0.0021192627)
(0.0029244511 -0.0012819166 -0.0020996779)
(0.0027725776 -0.0014938163 -0.00182585)
(0.0023360136 -0.0012711035 -0.0010427684)
(0.0024495614 -0.0012235241 -0.0011009085)
(0.0025771228 -0.0011339188 -0.0012034778)
(0.0026544263 -0.00090939132 -0.0012248312)
(0.0032499065 -0.00015603425 -0.0011458383)
(0.0041242908 -0.0052754078 -0.0047697332)
(0.0041658799 -0.0053189588 -0.0047001867)
(0.004166774 -0.0052388054 -0.0046191742)
(0.0042800331 -0.0050918004 -0.0044524451)
(0.0043837377 -0.0049183723 -0.004425901)
(0.0045014867 -0.0046708407 -0.0050224387)
(0.0044858479 -0.004774346 -0.004492173)
(0.0044569732 -0.0046879021 -0.0045028999)
(0.0045473198 -0.0036385511 -0.0052094543)
(0.0044737044 -0.0036217908 -0.0044775684)
(0.0045267926 -0.0035883565 -0.0045304066)
(0.0046014176 -0.0046541858 -0.0048946394)
(0.0045896475 -0.0037730488 -0.0049447538)
(0.0045637512 -0.0046317102 -0.004832231)
(0.0045410073 -0.0037489962 -0.0046331608)
(0.0045601469 -0.0038201141 -0.0047601685)
(0.0046310476 -0.0037551669 -0.0048360932)
(0.004586359 -0.0036588551 -0.0046124277)
(0.0040938663 -0.0029925546 -0.004959696)
(0.0043231095 -0.0031734901 -0.0052918177)
(0.0042689112 -0.0032220026 -0.0052576899)
(0.004186058 -0.0030063973 -0.0050043468)
(0.0041522584 -0.0030114828 -0.0048685116)
(0.0041312403 -0.0030113007 -0.004781974)
(0.004195754 -0.0029938468 -0.0047536339)